[Molden Format]
[Atoms] AU
   O     1     8   -0.12659186   -0.04385271   -0.05063674
   H     2     1    1.29415000   -1.15663180    0.98096584
   H     3     1    0.71501770    1.85262790   -0.17729876
[GTO]
   1   0
   s     8  1.00
    1.1720000000E+04    7.1000000000E-04
    1.7590000000E+03    5.4700000000E-03
    4.0080000000E+02    2.7837000000E-02
    1.1370000000E+02    1.0480000000E-01
    3.7030000000E+01    2.8306200000E-01
    1.3270000000E+01    4.4871900000E-01
    5.0250000000E+00    2.7095200000E-01
    1.0130000000E+00    1.5458000000E-02
   s     8  1.00
    1.1720000000E+04   -1.6000000000E-04
    1.7590000000E+03   -1.2630000000E-03
    4.0080000000E+02   -6.2670000000E-03
    1.1370000000E+02   -2.5716000000E-02
    3.7030000000E+01   -7.0924000000E-02
    1.3270000000E+01   -1.6541100000E-01
    5.0250000000E+00   -1.1695500000E-01
    1.0130000000E+00    5.5736800000E-01
   s     1  1.00
    3.0230000000E-01    1.0000000000E+00
   p     3  1.00
    1.7700000000E+01    4.3018000000E-02
    3.8540000000E+00    2.2891300000E-01
    1.0460000000E+00    5.0872800000E-01
   p     1  1.00
    2.7530000000E-01    1.0000000000E+00
   d     1  1.00
    1.1850000000E+00    1.0000000000E+00
   s     1  1.00
    7.8960000000E-02    1.0000000000E+00
   p     1  1.00
    6.8560000000E-02    1.0000000000E+00
   d     1  1.00
    3.3200000000E-01    1.0000000000E+00

   2   0
   s     3  1.00
    1.3010000000E+01    1.9685000000E-02
    1.9620000000E+00    1.3797700000E-01
    4.4460000000E-01    4.7814800000E-01
   s     1  1.00
    1.2200000000E-01    1.0000000000E+00
   p     1  1.00
    7.2700000000E-01    1.0000000000E+00
   s     1  1.00
    2.9740000000E-02    1.0000000000E+00
   p     1  1.00
    1.4100000000E-01    1.0000000000E+00

   3   0
   s     3  1.00
    1.3010000000E+01    1.9685000000E-02
    1.9620000000E+00    1.3797700000E-01
    4.4460000000E-01    4.7814800000E-01
   s     1  1.00
    1.2200000000E-01    1.0000000000E+00
   p     1  1.00
    7.2700000000E-01    1.0000000000E+00
   s     1  1.00
    2.9740000000E-02    1.0000000000E+00
   p     1  1.00
    1.4100000000E-01    1.0000000000E+00

[5D]
[MO]
   Sym= A
   Ene=   -20.5992326552
  Spin= Alpha
 Occup= 2.0000000000
     1 1.0008307481E+00
     2 3.3663286385E-03
     3 -7.4527500766E-03
     4 1.8488028936E-03
     5 6.4044410896E-04
     6 7.3952115742E-04
     7 -1.8538726186E-03
     8 -6.4220031321E-04
     9 -7.4154904742E-04
    10 4.8492861296E-05
    11 -4.6519794367E-05
    12 3.5808219708E-05
    13 2.0025606078E-05
    14 -7.8353554586E-06
    15 -4.3139770127E-03
    16 -7.0834509222E-04
    17 -2.4537793780E-04
    18 -2.8333803689E-04
    19 2.6172076937E-04
    20 -2.3323468620E-04
    21 2.2415551990E-04
    22 1.6159191430E-04
    23 -1.1393172528E-05
    24 1.2689958706E-03
    25 3.4837285581E-03
    26 1.8971253849E-05
    27 5.7025231512E-05
    28 -6.9761394577E-06
    29 2.7863821198E-04
    30 -1.1107692781E-03
    31 8.1807106615E-04
    32 -7.9154141417E-04
    33 1.2689958706E-03
    34 3.4837285580E-03
    35 3.7177055096E-05
    36 -3.7574886740E-05
    37 2.9435463035E-05
    38 2.7863821198E-04
    39 -6.7672714941E-04
    40 -1.4372779923E-03
    41 7.6542843171E-05
   Sym= A
   Ene=    -1.2954053876
  Spin= Alpha
 Occup= 2.0000000000
     1 -4.6159667206E-03
     2 9.0247758443E-01
     3 4.7104273713E-01
     4 6.7849237951E-02
     5 2.3503665477E-02
     6 2.7139695181E-02
     7 1.0740296213E-02
     8 3.7205477459E-03
     9 4.2961184853E-03
    10 -3.3275509351E-03
    11 3.1698255220E-03
    12 -2.4958233891E-03
    13 -1.4411492743E-03
    14 4.9897245258E-04
    15 7.7738776944E-02
    16 1.2503071670E-02
    17 4.3311910765E-03
    18 5.0012286679E-03
    19 5.5043066987E-03
    20 -4.9771959640E-03
    21 4.5895797879E-03
    22 3.1825159468E-03
    23 -3.6429624091E-04
    24 2.4762059821E-01
    25 -3.1622851232E-02
    26 -1.9870835118E-02
    27 1.8605267284E-02
    28 -1.5306295596E-02
    29 -3.5771471989E-03
    30 9.6472236542E-03
    31 -5.8237000259E-03
    32 6.5047692159E-03
    33 2.4762059821E-01
    34 -3.1622851232E-02
    35 -1.0673383181E-02
    36 -2.9186094878E-02
    37 3.0886082766E-03
    38 -3.5771471989E-03
    39 6.3398739614E-03
    40 1.1361793093E-02
    41 -1.0993016965E-04
   Sym= A
   Ene=    -0.6475710139
  Spin= Alpha
 Occup= 2.0000000000
     4 1.2477652817E-01
     5 -6.4835785915E-01
     6 2.4955305634E-01
     7 4.6052351258E-02
     8 -2.3929503656E-01
     9 9.2104702516E-02
    10 5.1696825512E-03
    11 8.9541528376E-03
    12 -5.1696825512E-03
    13 1.0446511644E-02
    14 -1.8093888929E-02
    16 5.3603640521E-03
    17 -2.7853268656E-02
    18 1.0720728104E-02
    19 -2.6969133651E-03
    20 -4.6711909720E-03
    21 2.6969133651E-03
    22 -5.4497228006E-03
    23 9.4391967778E-03
    24 5.2011355558E-01
    25 7.3412106124E-02
    26 -3.1520852683E-02
    27 1.3316961920E-02
    28 -1.9604702116E-02
    29 -8.3108411786E-03
    30 5.8227019425E-03
    31 -6.8864828552E-03
    32 4.8993073363E-03
    33 -5.2011355558E-01
    34 -7.3412106124E-02
    35 2.2775401380E-02
    36 3.2125736060E-02
    37 2.1137995088E-03
    38 8.3108411786E-03
    39 -2.6099187433E-03
    40 -9.8076283490E-03
    41 1.5262590620E-03
   Sym= A
   Ene=    -0.5590045299
  Spin= Alpha
 Occup= 2.0000000000
     1 -2.9250003536E-03
     2 -2.7672554363E-01
     3 -2.5316037036E-01
     4 6.8853739987E-01
     5 2.3851635190E-01
     6 2.7541495995E-01
     7 3.0524523640E-01
     8 1.0574005164E-01
     9 1.2209809456E-01
    10 -6.4410385104E-03
    11 8.5492312690E-03
    12 -6.5078950145E-04
    13 4.4509024952E-03
    14 5.1461451579E-03
    15 -6.2655762619E-02
    16 3.8101115249E-02
    17 1.3198613488E-02
    18 1.5240446100E-02
    19 -1.9137210669E-03
    20 7.1291768796E-03
    21 7.7551660111E-03
    22 1.5089672612E-02
    23 9.4775149713E-03
    24 3.5313122732E-01
    25 7.7057160316E-02
    26 -8.5773160998E-03
    27 2.3158563997E-02
    28 -1.0973959629E-02
    29 2.7677325083E-03
    30 1.1937236725E-02
    31 5.3483716688E-03
    32 4.4246764513E-03
    33 3.5313122732E-01
    34 7.7057160315E-02
    35 8.5147538619E-04
    36 -2.5834873726E-02
    37 7.8836233432E-03
    38 2.7677325081E-03
    39 1.2375009524E-02
    40 3.0736374813E-03
    41 5.3002220483E-03
   Sym= A
   Ene=    -0.5003166092
  Spin= Alpha
 Occup= 2.0000000000
     4 -3.9955939491E-01
     5 2.3068572421E-01
     6 7.9911878982E-01
     7 -1.9662818685E-01
     8 1.1352333661E-01
     9 3.9325637371E-01
    10 5.9731284456E-03
    11 6.8971746319E-03
    12 3.9820856304E-03
    13 -5.1728809739E-03
    14 9.9552140760E-04
    16 -3.0675316749E-02
    17 1.7710402382E-02
    18 6.1350633498E-02
    19 1.0548095934E-02
    20 1.2179892053E-02
    21 7.0320639557E-03
    22 -9.1349190401E-03
    23 1.7580159889E-03
    26 -8.6514791291E-03
    27 4.9949338041E-03
    28 1.7302958258E-02
    30 -7.2846809453E-03
    31 4.2058125048E-03
    32 1.4569361891E-02
    35 -8.6514791291E-03
    36 4.9949338041E-03
    37 1.7302958258E-02
    39 -7.2846809453E-03
    40 4.2058125048E-03
    41 1.4569361891E-02
   Sym= A
   Ene=     0.0320894176
  Spin= Alpha
 Occup= 0.0000000000
     1 6.4403582115E-05
     2 -1.3054057451E-01
     3 -1.7528505229E-01
     4 -1.2072297632E-01
     5 -4.1819665724E-02
     6 -4.8289190527E-02
     7 -1.3913638068E-01
     8 -4.8198256102E-02
     9 -5.5654552270E-02
    10 -3.1829309075E-04
    11 -4.1574531034E-04
    12 -1.4839954183E-03
    13 -2.2947055603E-03
    14 -1.1975316366E-03
    15 -1.3284391960E+00
    16 -2.0409543428E-01
    17 -7.0700732352E-02
    18 -8.1638173713E-02
    19 7.1631462085E-03
    20 -6.3320312458E-03
    21 6.2241510678E-03
    22 4.5770792956E-03
    23 -2.2268051983E-04
    24 6.5155229950E-02
    25 4.0089717314E-01
    26 4.4240706556E-03
    27 -5.7837202532E-03
    28 3.8816515504E-03
    29 7.9045744865E-01
    30 -6.7235219478E-02
    31 4.3485509900E-02
    32 -4.6170795162E-02
    33 6.5155229950E-02
    34 4.0089717314E-01
    35 1.7840415455E-03
    36 7.9342734036E-03
    37 -1.3984066699E-03
    38 7.9045744864E-01
    39 -4.3139335264E-02
    40 -8.1720377234E-02
    41 2.0209732653E-03
   Sym= A
   Ene=     0.0569017331
  Spin= Alpha
 Occup= 0.0000000000
     4 -2.2614843737E-02
     5 1.1751017508E-01
     6 -4.5229687475E-02
     7 -2.4610831925E-02
     8 1.2788163393E-01
     9 -4.9221663849E-02
    10 2.7475205420E-04
    11 4.7588451739E-04
    12 -2.7475205422E-04
    13 5.5519860361E-04
    14 -9.6163218974E-04
    16 -1.3124619070E-01
    17 6.8197521174E-01
    18 -2.6249238139E-01
    19 -5.0790089730E-03
    20 -8.7971015936E-03
    21 5.0790089732E-03
    22 -1.0263285192E-02
    23 1.7776531406E-02
    24 1.3017155752E-02
    25 3.8819207407E-01
    26 5.4627485353E-03
    27 -2.8568563430E-04
    28 2.8138446066E-03
    29 2.5376289823E+00
    30 -1.0605873032E-01
    31 4.2636853917E-02
    32 -6.5337564701E-02
    33 -1.3017155753E-02
    34 -3.8819207406E-01
    35 -4.6768170448E-03
    36 -3.7981341848E-03
    37 -1.2419816254E-03
    38 -2.5376289823E+00
    39 7.7416139598E-02
    40 1.0619441324E-01
    41 8.0523832646E-03
   Sym= A
   Ene=     0.1747564352
  Spin= Alpha
 Occup= 0.0000000000
     1 2.7723469524E-02
     2 2.1508968392E-01
     3 -2.0459073602E-01
     4 2.9974980402E-01
     5 1.0383637802E-01
     6 1.1989992161E-01
     7 4.2382930278E-02
     8 1.4681877725E-02
     9 1.6953172111E-02
    10 -5.7555859766E-03
    11 7.4727920950E-03
    12 -8.7015076082E-04
    13 3.4773383414E-03
    14 4.3098766181E-03
    15 -3.8851988692E+00
    16 -1.5062238988E+00
    17 -5.2177126405E-01
    18 -6.0248955952E-01
    19 4.2842468455E-02
    20 -4.2363113527E-02
    21 2.9446859297E-02
    22 1.3900790383E-02
    23 -9.1113623119E-03
    24 -8.8468205395E-02
    25 1.4691734069E+00
    26 -2.3744589251E-02
    27 1.8244414670E-02
    28 -1.7139003486E-02
    29 7.1038525568E-01
    30 -3.2171495837E-01
    31 3.2683984919E-01
    32 -2.5520801664E-01
    33 -8.8468205396E-02
    34 1.4691734069E+00
    35 -1.4193129519E-02
    36 -3.1386425956E-02
    37 1.9639159777E-03
    38 7.1038525567E-01
    39 -1.6356241675E-01
    40 -4.9494486308E-01
    41 6.1097066590E-02
   Sym= A
   Ene=     0.2030803121
  Spin= Alpha
 Occup= 0.0000000000
     4 -1.1376419500E-01
     5 6.5681788608E-02
     6 2.2752839000E-01
     7 -1.3330505988E-01
     8 7.6963712203E-02
     9 2.6661011975E-01
    10 7.0740488286E-03
    11 8.1684079909E-03
    12 4.7160325524E-03
    13 -6.1263059932E-03
    14 1.1790081381E-03
    16 5.9335675997E-01
    17 -3.4257468510E-01
    18 -1.1867135199E+00
    19 -2.4455964724E-02
    20 -2.8239315633E-02
    21 -1.6303976483E-02
    22 2.1179486725E-02
    23 -4.0759941207E-03
    26 4.9978524466E-03
    27 -2.8855114554E-03
    28 -9.9957048931E-03
    30 -9.3112829324E-02
    31 5.3758717075E-02
    32 1.8622565865E-01
    35 4.9978524466E-03
    36 -2.8855114554E-03
    37 -9.9957048931E-03
    39 -9.3112829324E-02
    40 5.3758717075E-02
    41 1.8622565865E-01
   Sym= A
   Ene=     0.2076263795
  Spin= Alpha
 Occup= 0.0000000000
     1 4.0811008563E-04
     2 2.7299663132E-01
     3 3.1051473729E-01
     4 8.1674972758E-02
     5 2.8293040505E-02
     6 3.2669989103E-02
     7 -6.7355581731E-02
     8 -2.3332657946E-02
     9 -2.6942232693E-02
    10 4.9703182528E-03
    11 -5.5991116291E-03
    12 2.2308179877E-03
    13 -4.4053177459E-04
    14 -2.2424684398E-03
    15 -7.1940783761E-01
    16 9.3392204241E-01
    17 3.2352008555E-01
    18 3.7356881696E-01
    19 -4.8123635594E-03
    20 1.4259816395E-02
    21 1.3149053960E-02
    22 2.6942458624E-02
    23 1.7480181163E-02
    24 -1.7469789588E-01
    25 -5.9365254962E-01
    26 2.9182794818E-04
    27 6.7006811269E-03
    28 -1.7884060521E-03
    29 4.6721785462E-01
    30 -2.9504416305E-01
    31 1.5330495646E-01
    32 -1.9177741046E-01
    33 -1.7469789588E-01
    34 -5.9365254962E-01
    35 2.6732494874E-03
    36 -5.6735481736E-03
    37 2.9744370263E-03
    38 4.6721785462E-01
    39 -2.0284448149E-01
    40 -3.2577864222E-01
    41 -7.3780473532E-03
   Sym= A
   Ene=     0.2333645218
  Spin= Alpha
 Occup= 0.0000000000
     4 -7.1215532439E-02
     5 3.7004676142E-01
     6 -1.4243106488E-01
     7 8.5553995720E-03
     8 -4.4455160204E-02
     9 1.7110799141E-02
    10 -1.6542036720E-03
    11 -2.8651648060E-03
    12 1.6542036720E-03
    13 -3.3426922736E-03
    14 5.7897128521E-03
    16 4.2139133392E-01
    17 -2.1896136006E+00
    18 8.4278266784E-01
    19 2.1484084650E-02
    20 3.7211526168E-02
    21 -2.1484084650E-02
    22 4.3413447196E-02
    23 -7.5194296275E-02
    24 3.8070224577E-02
    25 -1.5281534192E+00
    26 2.5985446589E-02
    27 -2.5759591092E-02
    28 2.0428876720E-02
    29 -2.2348890917E+00
    30 6.2773704194E-01
    31 -3.7014140902E-01
    32 4.2071914204E-01
    33 -3.8070224578E-02
    34 1.5281534192E+00
    35 -1.3442073984E-02
    36 -3.9417684862E-02
    37 4.6578684911E-03
    38 2.2348890918E+00
    39 -4.1570663536E-01
    40 -7.3160090181E-01
    41 3.3416711171E-03
   Sym= A
   Ene=     0.2511229842
  Spin= Alpha
 Occup= 0.0000000000
     4 4.2939212274E-02
     5 -2.2311869188E-01
     6 8.5878424548E-02
     7 5.4567922419E-02
     8 -2.8354324227E-01
     9 1.0913584484E-01
    10 -4.5106586369E-03
    11 -7.8126899347E-03
    12 4.5106586369E-03
    13 -9.1148049237E-03
    14 1.5787305229E-02
    16 3.3203530951E-01
    17 -1.7253060779E+00
    18 6.6407061902E-01
    19 1.9318912186E-02
    20 3.3461337453E-02
    21 -1.9318912186E-02
    22 3.9038227028E-02
    23 -6.7616192651E-02
    24 -2.8170366873E-01
    25 -1.6990987212E+00
    26 8.3794763184E-03
    27 -2.1250530408E-02
    28 1.0324237885E-02
    29 -4.6032420361E-01
    30 -1.3400351874E-01
    31 7.0084931995E-02
    32 -8.7233536545E-02
    33 2.8170366873E-01
    34 1.6990987212E+00
    35 3.3608287880E-04
    36 -2.4036843629E-02
    37 7.1068805091E-03
    38 4.6032420361E-01
    39 9.1963357424E-02
    40 1.4836215406E-01
    41 3.1532139193E-03
   Sym= A
   Ene=     0.3177385950
  Spin= Alpha
 Occup= 0.0000000000
     1 -1.1837532501E-02
     2 -7.8550367220E-02
     3 6.7670160653E-02
     4 1.0033219895E-01
     5 3.4756093243E-02
     6 4.0132879581E-02
     7 2.7272984863E-01
     8 9.4476390913E-02
     9 1.0909193945E-01
    10 7.0850845530E-03
    11 5.6020843051E-04
    12 1.7974512392E-02
    13 2.4996905493E-02
    14 1.1597936294E-02
    15 4.4619152972E+00
    16 5.1655312733E-01
    17 1.7893925227E-01
    18 2.0662125093E-01
    19 -3.5396348243E-02
    20 9.3115686261E-03
    21 -6.8823125826E-02
    22 -8.8551013886E-02
    23 -3.6966412407E-02
    24 -1.7939184338E-01
    25 -2.1956553826E+00
    26 2.3628237271E-02
    27 -8.1274784885E-03
    28 1.4160319582E-02
    29 -3.3733584152E-01
    30 4.7103661770E-01
    31 3.1793626952E-01
    32 1.4373801345E-01
    33 -1.7939184338E-01
    34 -2.1956553826E+00
    35 1.7741956429E-02
    36 2.2458533970E-02
    37 2.3877578978E-03
    38 -3.3733584153E-01
    39 5.2688240974E-01
    40 2.7753021947E-02
    41 2.5542959752E-01
   Sym= A
   Ene=     0.3752222061
  Spin= Alpha
 Occup= 0.0000000000
    10 -1.7986116563E-02
    12 2.3981488750E-02
    13 -5.1921446196E-03
    14 -1.4988430469E-02
    19 5.3573021018E-02
    21 -7.1430694691E-02
    22 1.5465199053E-02
    23 4.4644184182E-02
    26 -2.5079944312E-03
    27 1.4479912600E-03
    28 5.0159888625E-03
    30 4.4310769765E-01
    31 -2.5582834852E-01
    32 -8.8621539530E-01
    35 2.5079944313E-03
    36 -1.4479912600E-03
    37 -5.0159888625E-03
    39 -4.4310769765E-01
    40 2.5582834852E-01
    41 8.8621539530E-01
   Sym= A
   Ene=     0.3833768060
  Spin= Alpha
 Occup= 0.0000000000
     1 1.0165704021E-03
     2 -4.9655102076E-02
     3 -1.4142222809E-01
     4 2.1832448880E-01
     5 7.5629821426E-02
     6 8.7329795519E-02
     7 5.8012347433E-01
     8 2.0096066644E-01
     9 2.3204938973E-01
    10 4.8226344258E-03
    11 -1.0269458092E-02
    12 -6.2129005598E-03
    13 -1.4937583358E-02
    14 -1.0553271543E-02
    15 4.2469317091E+00
    16 1.5921552397E+00
    17 5.5153875372E-01
    18 6.3686209586E-01
    19 -2.5626906680E-02
    20 4.5488144256E-02
    21 1.7283200961E-02
    22 5.2128934388E-02
    23 4.0347416973E-02
    24 -9.0277144818E-02
    25 -2.2058038846E+00
    26 1.4068197074E-02
    27 -2.4244716642E-02
    28 1.4032945377E-02
    29 -2.8656815892E-01
    30 -4.2536051543E-01
    31 -5.9329152115E-01
    32 -4.1411747993E-02
    33 -9.0277144818E-02
    34 -2.2058038846E+00
    35 3.5611138900E-03
    36 3.0351689101E-02
    37 -6.9812209913E-03
    38 -2.8656815892E-01
    39 -5.8627608815E-01
    40 2.4285032190E-01
    41 -3.6324289344E-01
   Sym= A
   Ene=     0.4130331427
  Spin= Alpha
 Occup= 0.0000000000
     4 8.2603657614E-02
     5 -4.7691243960E-02
     6 -1.6520731523E-01
     7 2.1362903740E-01
     8 -1.2333878225E-01
     9 -4.2725807481E-01
    10 1.2527899295E-02
    11 1.4465972061E-02
    12 8.3519328636E-03
    13 -1.0849479046E-02
    14 2.0879832159E-03
    16 4.8487085175E-01
    17 -2.7994031678E-01
    18 -9.6974170350E-01
    19 -3.4210837833E-02
    20 -3.9503272865E-02
    21 -2.2807225222E-02
    22 2.9627454649E-02
    23 -5.7018063056E-03
    26 4.0908125753E-03
    27 -2.3618317415E-03
    28 -8.1816251505E-03
    30 -4.8936507206E-01
    31 2.8253505608E-01
    32 9.7873014412E-01
    35 4.0908125752E-03
    36 -2.3618317415E-03
    37 -8.1816251505E-03
    39 -4.8936507206E-01
    40 2.8253505608E-01
    41 9.7873014411E-01
   Sym= A
   Ene=     0.5182034086
  Spin= Alpha
 Occup= 0.0000000000
     4 1.7427692483E-02
     5 -9.0556946519E-02
     6 3.4855384966E-02
     7 2.3339353036E-02
     8 -1.2127483582E-01
     9 4.6678706072E-02
    10 2.8144291700E-03
    11 4.8747343167E-03
    12 -2.8144291700E-03
    13 5.6871900362E-03
    14 -9.8505020950E-03
    16 3.2672333840E-01
    17 -1.6977042664E+00
    18 6.5344667680E-01
    19 -6.9810051027E-03
    20 -1.2091455526E-02
    21 6.9810051028E-03
    22 -1.4106698113E-02
    23 2.4433517860E-02
    24 4.2041233641E-02
    25 2.7471744883E-01
    26 -1.8798514668E-02
    27 -2.8610077537E-02
    28 -1.1402393501E-03
    29 -5.4130845445E-01
    30 6.1129186586E-01
    31 1.8476303413E+00
    32 -2.2771900451E-01
    33 -4.2041233641E-02
    34 -2.7471744883E-01
    35 2.6772472814E-02
    36 -1.2823824403E-02
    37 1.7088155642E-02
    38 5.4130845445E-01
    39 -1.2015865544E+00
    40 1.2196308349E+00
    41 -9.5287037263E-01
   Sym= A
   Ene=     0.6048149220
  Spin= Alpha
 Occup= 0.0000000000
     1 7.7213398017E-02
     2 -1.0841321147E-01
     3 -2.1309671347E+00
     4 -3.0070722878E-01
     5 -1.0416803968E-01
     6 -1.2028289151E-01
     7 -5.8592428650E-01
     8 -2.0297012670E-01
     9 -2.3436971461E-01
    10 2.6302429783E-04
    11 -2.4399803920E-03
    12 -3.5949116937E-03
    13 -6.4543554259E-03
    14 -3.8316335618E-03
    15 -4.5316555377E+00
    16 -4.6884876967E-01
    17 -1.6241397800E-01
    18 -1.8753950787E-01
    19 -3.5893321770E-02
    20 3.1944719589E-02
    21 -3.0814094884E-02
    22 -2.2287049450E-02
    23 1.4898947093E-03
    24 4.0841308964E-01
    25 2.4596960415E+00
    26 1.7811468007E-02
    27 -2.3383920001E-02
    28 1.5656090257E-02
    29 5.0887831787E-01
    30 -1.1739841161E+00
    31 8.3102991433E-01
    32 -8.2688973044E-01
    33 4.0841308963E-01
    34 2.4596960413E+00
    35 7.1470891893E-03
    36 3.2029817831E-02
    37 -5.6726673788E-03
    38 5.0887831784E-01
    39 -7.2736401114E-01
    40 -1.4896762261E+00
    41 6.6350479510E-02
   Sym= A
   Ene=     0.6272366158
  Spin= Alpha
 Occup= 0.0000000000
     4 8.7745820440E-02
     5 -4.5594065749E-01
     6 1.7549164089E-01
     7 2.5479688185E-01
     8 -1.3239634350E+00
     9 5.0959376371E-01
    10 -1.3861712364E-03
    11 -2.4009190093E-03
    12 1.3861712363E-03
    13 -2.8010721777E-03
    14 4.8515993271E-03
    15 -7.4032326498E-11
    16 2.6871559951E-01
    17 -1.3962872135E+00
    18 5.3743119904E-01
    19 -4.7647118351E-03
    20 -8.2527229790E-03
    21 4.7647118331E-03
    22 -9.6281768107E-03
    23 1.6676491419E-02
    24 -4.6880079495E-01
    25 -4.4962153316E+00
    26 -1.0188280029E-02
    27 8.6219542421E-03
    28 -7.5830838160E-03
    29 -1.0783847334E+00
    30 1.6294249108E+00
    31 -1.6156556309E+00
    32 1.2811120621E+00
    33 4.6880079496E-01
    34 4.4962153317E+00
    35 5.8035652746E-03
    36 1.4161691958E-02
    37 -1.1863456949E-03
    38 1.0783847334E+00
    39 -8.4274728860E-01
    40 -2.4720412019E+00
    41 2.9224318237E-01
   Sym= A
   Ene=     0.7825257883
  Spin= Alpha
 Occup= 0.0000000000
     4 -3.3807785671E-02
     5 1.7567040741E-01
     6 -6.7615571339E-02
     7 1.8958201055E-01
     8 -9.8509702339E-01
     9 3.7916402109E-01
    10 7.8020126779E-03
    11 1.3513482359E-02
    12 -7.8020126780E-03
    13 1.5765729419E-02
    14 -2.7307044373E-02
    16 3.4587772829E-01
    17 -1.7972333958E+00
    18 6.9175545657E-01
    19 1.5687745707E-01
    20 2.7171972622E-01
    21 -1.5687745708E-01
    22 3.1700634725E-01
    23 -5.4907109976E-01
    24 7.7281808305E-01
    25 -4.8552496819E+00
    26 1.6477306879E-01
    27 -7.4824384365E-02
    28 1.0398647362E-01
    29 -5.4181437260E-01
    30 8.0750277184E-01
    31 -1.1406025765E+00
    32 7.3301498821E-01
    33 -7.7281808304E-01
    34 4.8552496819E+00
    35 -1.1717651116E-01
    36 -1.7249458389E-01
    37 -8.7933583566E-03
    38 5.4181437260E-01
    39 -2.9498542250E-01
    40 -1.5225156900E+00
    41 2.9201971047E-01
   Sym= A
   Ene=     0.9003612795
  Spin= Alpha
 Occup= 0.0000000000
     1 -1.1725894889E-01
     2 -4.1442002177E-01
     3 1.4257359065E+00
     4 -9.3983117795E-02
     5 -3.2556707014E-02
     6 -3.7593247118E-02
     7 4.1628819203E-01
     8 1.4420645984E-01
     9 1.6651527681E-01
    10 -1.5320948745E-02
    11 1.2803164580E-02
    12 -1.4594545438E-02
    13 -1.2010163388E-02
    14 -8.0569156722E-04
    15 5.4949904587E+00
    16 1.2734467556E+00
    17 4.4113489630E-01
    18 5.0937870224E-01
    19 -3.6430086302E-01
    20 3.1351377593E-01
    21 -3.3130028247E-01
    22 -2.5833511980E-01
    23 -3.4295057470E-03
    24 1.0834440903E+00
    25 -3.8617685516E+00
    26 9.6940662491E-02
    27 -1.3446915765E-01
    28 8.7288233429E-02
    29 -2.3122502580E-01
    30 6.0418045050E-01
    31 -3.1248406576E-01
    32 3.9229660499E-01
    33 1.0834440903E+00
    34 -3.8617685516E+00
    35 3.6300701950E-02
    36 1.8062532023E-01
    37 -3.3991687653E-02
    38 -2.3122502581E-01
    39 4.1589991952E-01
    40 6.6585027151E-01
    41 1.5735543010E-02
   Sym= A
   Ene=     1.1131551267
  Spin= Alpha
 Occup= 0.0000000000
     4 -9.6870480827E-02
     5 5.5928198182E-02
     6 1.9374096166E-01
     7 -5.0368413536E-03
     8 2.9080217113E-03
     9 1.0073682707E-02
    10 -1.2205849598E-02
    11 -1.4094101103E-02
    12 -8.1372330655E-03
    13 1.0570575827E-02
    14 -2.0343082664E-03
    16 -2.9428119307E-01
    17 1.6990332604E-01
    18 5.8856238614E-01
    19 5.9794671499E-01
    20 6.9044939373E-01
    21 3.9863114333E-01
    22 -5.1783704529E-01
    23 9.9657785832E-02
    26 -1.3052001771E-02
    27 7.5355767359E-03
    28 2.6104003542E-02
    30 2.4282753248E-01
    31 -1.4019654124E-01
    32 -4.8565506496E-01
    35 -1.3052001771E-02
    36 7.5355767358E-03
    37 2.6104003542E-02
    39 2.4282753248E-01
    40 -1.4019654124E-01
    41 -4.8565506496E-01
   Sym= A
   Ene=     1.1211427532
  Spin= Alpha
 Occup= 0.0000000000
     1 5.0626392573E-03
     2 -2.9687628482E-02
     3 -3.5770573701E-01
     4 1.4428619400E-01
     5 4.9982203767E-02
     6 5.7714477599E-02
     7 -5.9413462756E-02
     8 -2.0581427229E-02
     9 -2.3765385102E-02
    10 1.3509767557E-02
    11 -1.6186404253E-02
    12 4.3877675782E-03
    13 -4.0999655263E-03
    14 -7.7710232230E-03
    15 -1.9670328384E-01
    16 5.1365886143E-01
    17 1.7793664915E-01
    18 2.0546354457E-01
    19 -3.6515263106E-01
    20 6.1969589394E-01
    21 1.9697845900E-01
    22 6.5740815374E-01
    23 5.2561582695E-01
    24 -2.1425070398E-01
    25 2.1544228086E-01
    26 1.9436667930E-02
    27 8.8562378953E-02
    28 -1.5847422700E-02
    29 1.3789857058E-02
    30 -4.9173442819E-01
    31 -2.7685213936E-01
    32 -1.6594688550E-01
    33 -2.1425070398E-01
    34 2.1544228086E-01
    35 4.8964280269E-02
    36 -6.4867595440E-02
    37 4.3207801979E-02
    38 1.3789857058E-02
    39 -5.3016803540E-01
    40 -7.7145258107E-02
    41 -2.4281409993E-01
   Sym= A
   Ene=     1.1360993147
  Spin= Alpha
 Occup= 0.0000000000
    10 1.0539021528E-02
    12 -1.4052028704E-02
    13 3.0423534581E-03
    14 8.7825179401E-03
    19 -6.2588490292E-01
    21 8.3451320389E-01
    22 -1.8067740859E-01
    23 -5.2157075243E-01
    26 2.9456162088E-02
    27 -1.7006523111E-02
    28 -5.8912324177E-02
    30 -2.7153943137E-01
    31 1.5677336380E-01
    32 5.4307886275E-01
    35 -2.9456162088E-02
    36 1.7006523111E-02
    37 5.8912324177E-02
    39 2.7153943137E-01
    40 -1.5677336380E-01
    41 -5.4307886275E-01
   Sym= A
   Ene=     1.2519386181
  Spin= Alpha
 Occup= 0.0000000000
     1 1.0189313423E-01
     2 4.0942374618E-01
     3 -1.0366418919E+00
     4 5.5760709103E-01
     5 1.9316076246E-01
     6 2.2304283641E-01
     7 -6.5248574979E-01
     8 -2.2602769397E-01
     9 -2.6099429992E-01
    10 3.5115951561E-02
    11 -2.9553987497E-02
    12 3.3089275836E-02
    13 2.6901000803E-02
    14 1.4849194304E-03
    15 -2.0506501636E+00
    16 -4.6984013280E-01
    17 -1.6275739629E-01
    18 -1.8793605312E-01
    19 -4.2077029067E-01
    20 2.7510511831E-01
    21 -5.3335265528E-01
    22 -5.5939613641E-01
    23 -1.5465939367E-01
    24 -1.1145926721E+00
    25 1.7467956618E+00
    26 -1.5797271114E-01
    27 1.0165011436E-01
    28 -1.0833021602E-01
    29 5.6045620291E-02
    30 -1.8272093638E-01
    31 4.9359586498E-01
    32 -2.3384932095E-01
    33 -1.1145926721E+00
    34 1.7467956619E+00
    35 -1.0154629669E-01
    36 -1.9155013578E-01
    37 4.5226128824E-03
    38 5.6045620292E-02
    39 1.8230246620E-02
    40 -5.5057711139E-01
    41 1.6805304504E-01
   Sym= A
   Ene=     1.4224344274
  Spin= Alpha
 Occup= 0.0000000000
     4 1.5417226014E-01
     5 -8.0110256303E-01
     6 3.0834452027E-01
     7 -2.7227104603E-01
     8 1.4147618554E+00
     9 -5.4454209205E-01
    10 -1.4822060081E-02
    11 -2.5672561133E-02
    12 1.4822060081E-02
    13 -2.9951321322E-02
    14 5.1877210284E-02
    16 -1.0988161383E-01
    17 5.7096161391E-01
    18 -2.1976322766E-01
    19 1.7290741458E-01
    20 2.9948442706E-01
    21 -1.7290741458E-01
    22 3.4939849823E-01
    23 -6.0517595103E-01
    24 -9.3153595517E-01
    25 2.8757490524E+00
    26 -2.0372965910E-01
    27 1.4027686617E-01
    28 -1.4235927277E-01
    29 3.6924822830E-02
    30 -8.5828832353E-01
    31 5.6315474367E-01
    32 -5.9171293319E-01
    33 9.3153595518E-01
    34 -2.8757490524E+00
    35 1.2764539768E-01
    36 2.5506855311E-01
    37 -9.8092500571E-03
    38 -3.6924822830E-02
    39 5.4779131880E-01
    40 1.0502350197E+00
    41 -2.9281076257E-02
   Sym= A
   Ene=     1.4391355783
  Spin= Alpha
 Occup= 0.0000000000
     4 -6.1352501261E-01
     5 3.5421883119E-01
     6 1.2270500252E+00
     7 6.1982823990E-01
     8 -3.5785800116E-01
     9 -1.2396564798E+00
    10 -1.5333559626E-03
    11 -1.7705669556E-03
    12 -1.0222373084E-03
    13 1.3279252166E-03
    14 -2.5555932707E-04
    16 -7.5911403243E-03
    17 4.3827469101E-03
    18 1.5182280648E-02
    19 -1.3859008520E-01
    20 -1.6003004599E-01
    21 -9.2393390131E-02
    22 1.2002253449E-01
    23 -2.3098347533E-02
    26 3.3843957163E-02
    27 -1.9539817779E-02
    28 -6.7687914327E-02
    30 -1.8861528750E-01
    31 1.0889708701E-01
    32 3.7723057501E-01
    35 3.3843957164E-02
    36 -1.9539817779E-02
    37 -6.7687914327E-02
    39 -1.8861528750E-01
    40 1.0889708701E-01
    41 3.7723057501E-01
   Sym= A
   Ene=     1.5594888208
  Spin= Alpha
 Occup= 0.0000000000
     1 1.8432419051E-01
     2 1.0231451801E+00
     3 -1.8418397441E-01
     4 -1.0196381039E+00
     5 -3.5321300026E-01
     6 -4.0785524157E-01
     7 1.4881378004E+00
     8 5.1550605580E-01
     9 5.9525512016E-01
    10 1.0814058062E-02
    11 -6.8346630841E-03
    12 1.4115755634E-02
    13 1.5083956946E-02
    14 4.3831033787E-03
    15 2.3987637917E+00
    16 2.7618892905E-01
    17 9.5674651523E-02
    18 1.1047557162E-01
    19 -3.7346938475E-01
    20 3.3099136344E-01
    21 -3.2303266506E-01
    22 -2.3607501366E-01
    23 1.3089781216E-02
    24 -1.0680417261E+00
    25 -9.8303519087E-01
    26 1.2880154858E-01
    27 3.7078739685E-02
    28 5.3697064120E-02
    29 -2.1354421935E-01
    30 -3.5294240844E-03
    31 -2.1152483201E-01
    32 5.9297247309E-02
    33 -1.0680417261E+00
    34 -9.8303519088E-01
    35 1.2608099272E-01
    36 5.1215162613E-02
    37 4.8255952398E-02
    38 -2.1354421935E-01
    39 -7.9415695262E-02
    40 1.8279179983E-01
    41 -9.2475295049E-02
   Sym= A
   Ene=     1.9054797627
  Spin= Alpha
 Occup= 0.0000000000
     4 5.4750083088E-02
     5 -2.8448977688E-01
     6 1.0950016618E-01
     7 -1.0735898883E-01
     8 5.5785366992E-01
     9 -2.1471797766E-01
    10 9.2840313903E-03
    11 1.6080414067E-02
    12 -9.2840313903E-03
    13 1.8760483078E-02
    14 -3.2494109866E-02
    16 -1.6097786797E-01
    17 8.3646553868E-01
    18 -3.2195573595E-01
    19 -1.1578856139E-01
    20 -2.0055167126E-01
    21 1.1578856139E-01
    22 -2.3397694980E-01
    23 4.0525996486E-01
    24 5.6291985507E-01
    25 6.6617448768E-01
    26 4.4776335176E-01
    27 6.7306291900E-01
    28 2.9585147147E-02
    29 3.4334609334E-01
    30 -4.9950420771E-01
    31 -4.8732407279E-01
    32 -1.0907376155E-01
    33 -5.6291985507E-01